LAMMPS Description

        0  atoms
	0  bonds

        2  atom types

 0	66 xlo xhi
 0	66 ylo yhi
 -100	100 zlo zhi

Masses

  1 1
  2 1
